 TITLE="NTI converted file"
 VARIABLES="X","Y","Z"," Mass Caught (kg/m^2s)"," Impact Angle (degree)"," Film Thickness (micron)"," Instant. Ice Growth (kg/m^2s)"," Freezing fraction"," Ice Growth  (kg/m^2)"," Instant. Mass Evaporation"," Wall Temperature (C)"," Ice Density (kg/m^3)"," Cfx; Velocity"," Cfy (m/s)"," Cfz (m/s)"," FLOW SOLVER Convective Flux"," Ch"," Current Convective Heat Flux"," Evaporative Heat Flux"," Anti-Icing Heat Flux"," Ice thickness  (m)"," NTAGS node tags"," ARATS Ice2Surf Area Ratio"," Anti-Icing Wall Temp. (K)"," Bead Height (m)"," NCNDS"," NCCFS"," CAIMS"," TRECSRecovery Temperature (K)"," Vapor Pressure (Pa)"," Clipped or shed film (kg/m^2)"," NCFLS CFL number"," NBEAS"," HBMXS"
ZONE ZONETYPE=FEQUADRILATERAL, DATAPACKING=POINT, T="WALL_2001", N=         554 ,  E=         276                                                                                                                                                                                                                                                                                                                                                                                                                                                                                                                       
  0.1560672725698650E+00 -.1144314298874472E-01 0.0000000000000000E+00 0.0000000000000000E+00 0.0000000000000000E+00 0.0000000000000000E+00 0.0000000000000000E+00 0.0000000000000000E+00 0.0000000000000000E+00 0.0000000000000000E+00 -.8880249581083792E+01 0.2000000000000000E+03 0.0000000000000000E+00 0.0000000000000000E+00 0.0000000000000000E+00 -.2460918865559351E+04 0.2430673263281566E+03 0.4898306809519691E-07 0.0000000000000000E+00 0.0000000000000000E+00 0.0000000000000000E+00 0.3571120862703136-157 0.1198269321513537-149 0.2642697504189162E+03 0.1145999822163353E-04 0.1305084437867705+152 0.1398097973888158+152 0.3571120862703136-157 0.1305084437865833+152 0.2864529710201206E+03 0.0000000000000000E+00 0.3571120862703136-157 0.3571120862703136-157 0.8837998090566967-152
  0.1542051318519933E+00 -.1144114562873061E-01 0.0000000000000000E+00 0.0000000000000000E+00 0.0000000000000000E+00 0.0000000000000000E+00 0.0000000000000000E+00 0.0000000000000000E+00 0.0000000000000000E+00 0.0000000000000000E+00 -.8880249581083318E+01 0.2000000000000000E+03 0.0000000000000000E+00 0.0000000000000000E+00 0.0000000000000000E+00 -.2466740840047233E+04 0.2436423683551511E+03 0.4898339442161806E-07 0.0000000000000000E+00 0.0000000000000000E+00 0.0000000000000000E+00 0.1891531040031390-157 0.6346924965862255-150 0.2642697504189167E+03 0.1145999822163353E-04 0.6589499268699861+151 0.2535855571543068+152 0.1891531040031390-157 0.6589499268718522+151 0.2864529710201206E+03 0.0000000000000000E+00 0.1891531040031390-157 0.1891531040031390-157 0.5873814544486921-152
  0.1542051318519933E+00 -.1144114562873061E-01 0.4310000000000000E-01 0.0000000000000000E+00 0.0000000000000000E+00 0.0000000000000000E+00 0.0000000000000000E+00 0.0000000000000000E+00 0.0000000000000000E+00 0.0000000000000000E+00 -.8880249581083318E+01 0.2000000000000000E+03 0.0000000000000000E+00 0.0000000000000000E+00 0.0000000000000000E+00 -.2466740840047233E+04 0.2436423683551511E+03 0.4898339442161806E-07 0.0000000000000000E+00 0.0000000000000000E+00 0.0000000000000000E+00 0.3571124335763683-157 0.1198270486879277-149 0.2642697504189167E+03 0.1145999822163353E-04 0.1305085686567119+152 0.1392210660533462+152 0.3571124335763683-157 0.1305085686565253+152 0.2864529710201206E+03 0.0000000000000000E+00 0.3571124335763683-157 0.3571124335763683-157 0.8446190554997640-152
  0.1560672725698650E+00 -.1144314298874472E-01 0.4310000000000000E-01 0.0000000000000000E+00 0.0000000000000000E+00 0.0000000000000000E+00 0.0000000000000000E+00 0.0000000000000000E+00 0.0000000000000000E+00 0.0000000000000000E+00 -.8880249581083792E+01 0.2000000000000000E+03 0.0000000000000000E+00 0.0000000000000000E+00 0.0000000000000000E+00 -.2460918865559351E+04 0.2430673263281566E+03 0.4898306809519691E-07 0.0000000000000000E+00 0.0000000000000000E+00 0.0000000000000000E+00 0.3571119126172863-157 0.1198268738830667-149 0.2642697504189162E+03 0.1145999822163353E-04 0.1305083813517995+152 0.1398096725188737+152 0.3571119126172863-157 0.1305083813516123+152 0.2864529710201206E+03 0.0000000000000000E+00 0.3571119126172863-157 0.3571119126172863-157 0.8838002642776887-152
  0.1272784686047930E+00 -.1127962003952574E-01 0.0000000000000000E+00 0.0000000000000000E+00 0.0000000000000000E+00 0.0000000000000000E+00 0.0000000000000000E+00 0.0000000000000000E+00 0.0000000000000000E+00 0.0000000000000000E+00 -.8880249581078166E+01 0.2000000000000000E+03 0.0000000000000000E+00 0.0000000000000000E+00 0.0000000000000000E+00 -.2531619991671410E+04 0.2500505446426466E+03 0.4898361540854244E-07 0.0000000000000000E+00 0.0000000000000000E+00 0.0000000000000000E+00 0.3571113916582042-157 0.1198266990782058-149 0.2642697504189218E+03 0.1145999822163353E-04 0.1305081940468879+152 0.1324547176971208+152 0.3571113916582042-157 0.1305081940466993+152 0.2864529710201206E+03 0.0000000000000000E+00 0.3571113916582042-157 0.3571113916582042-157 0.8275887661696169-152
  0.1255552048088795E+00 -.1126471758976808E-01 0.0000000000000000E+00 0.0000000000000000E+00 0.0000000000000000E+00 0.0000000000000000E+00 0.0000000000000000E+00 0.0000000000000000E+00 0.0000000000000000E+00 0.0000000000000000E+00 -.8880249581077848E+01 0.2000000000000000E+03 0.0000000000000000E+00 0.0000000000000000E+00 0.0000000000000000E+00 -.2535721207609731E+04 0.2504556256905321E+03 0.4898333185914720E-07 0.0000000000000000E+00 0.0000000000000000E+00 0.0000000000000000E+00 0.3571122599233410-157 0.1198269904196407-149 0.2642697504189221E+03 0.1145999822163353E-04 0.1305085062217430+152 0.1319755509541510+152 0.3571122599233410-157 0.1305085062215542+152 0.2864529710201206E+03 0.0000000000000000E+00 0.3571122599233410-157 0.3571122599233410-157 0.8332346171195988-152
  0.1255552048088795E+00 -.1126471758976808E-01 0.4310000000000000E-01 0.0000000000000000E+00 0.0000000000000000E+00 0.0000000000000000E+00 0.0000000000000000E+00 0.0000000000000000E+00 0.0000000000000000E+00 0.0000000000000000E+00 -.8880249581077848E+01 0.2000000000000000E+03 0.0000000000000000E+00 0.0000000000000000E+00 0.0000000000000000E+00 -.2535721207609731E+04 0.2504556256905321E+03 0.4898333185914720E-07 0.0000000000000000E+00 0.0000000000000000E+00 0.0000000000000000E+00 0.3571117389642589-157 0.1198268156147798-149 0.2642697504189221E+03 0.1145999822163353E-04 0.1305083189168299+152 0.1319761753038612+152 0.3571117389642589-157 0.1305083189166413+152 0.2864529710201206E+03 0.0000000000000000E+00 0.3571117389642589-157 0.3571117389642589-157 0.8332359827825750-152
  0.1272784686047930E+00 -.1127962003952574E-01 0.4310000000000000E-01 0.0000000000000000E+00 0.0000000000000000E+00 0.0000000000000000E+00 0.0000000000000000E+00 0.0000000000000000E+00 0.0000000000000000E+00 0.0000000000000000E+00 -.8880249581078166E+01 0.2000000000000000E+03 0.0000000000000000E+00 0.0000000000000000E+00 0.0000000000000000E+00 -.2531619991671410E+04 0.2500505446426466E+03 0.4898361540854244E-07 0.0000000000000000E+00 0.0000000000000000E+00 0.0000000000000000E+00 0.3571112180051769-157 0.1198266408099188-149 0.2642697504189218E+03 0.1145999822163353E-04 0.1305081316119169+152 0.1324545928271788+152 0.3571112180051769-157 0.1305081316117283+152 0.2864529710201206E+03 0.0000000000000000E+00 0.3571112180051769-157 0.3571112180051769-157 0.8275883109486249-152
  0.1088584524019610E+00 -.1110798045664334E-01 0.0000000000000000E+00 0.0000000000000000E+00 0.0000000000000000E+00 0.0000000000000000E+00 0.0000000000000000E+00 0.0000000000000000E+00 0.0000000000000000E+00 0.0000000000000000E+00 -.8880249581072635E+01 0.2000000000000000E+03 0.0000000000000000E+00 0.0000000000000000E+00 0.0000000000000000E+00 -.2605158351018805E+04 0.2573139992161754E+03 0.4898313705936886E-07 0.0000000000000000E+00 0.0000000000000000E+00 0.0000000000000000E+00 0.3571134754945324-157 0.1198273982976495-149 0.2642697504189273E+03 0.1145999822163353E-04 0.1305089432665488+152 0.1279040346182611+152 0.3571134754945324-157 0.1305089432663514+152 0.2864529710201206E+03 0.0000000000000000E+00 0.3571134754945324-157 0.3571134754945324-157 0.6135245440485754-152
  0.1072439118172271E+00 -.1109080583250989E-01 0.0000000000000000E+00 0.0000000000000000E+00 0.0000000000000000E+00 0.0000000000000000E+00 0.0000000000000000E+00 0.0000000000000000E+00 0.0000000000000000E+00 0.0000000000000000E+00 -.8880249581071979E+01 0.2000000000000000E+03 0.0000000000000000E+00 0.0000000000000000E+00 0.0000000000000000E+00 -.2614182651001539E+04 0.2582053380162817E+03 0.4898356791966808E-07 0.0000000000000000E+00 0.0000000000000000E+00 0.0000000000000000E+00 0.3571115653112316-157 0.1198267573464928-149 0.2642697504189280E+03 0.1145999822163353E-04 0.1305082564818677+152 0.1286992192075516+152 0.3571115653112316-157 0.1305082564816703+152 0.2864529710201206E+03 0.0000000000000000E+00 0.3571115653112316-157 0.3571115653112316-157 0.6029188924570887-152
  0.1072439118172271E+00 -.1109080583250989E-01 0.4310000000000000E-01 0.0000000000000000E+00 0.0000000000000000E+00 0.0000000000000000E+00 0.0000000000000000E+00 0.0000000000000000E+00 0.0000000000000000E+00 0.0000000000000000E+00 -.8880249581071979E+01 0.2000000000000000E+03 0.0000000000000000E+00 0.0000000000000000E+00 0.0000000000000000E+00 -.2614182651001539E+04 0.2582053380162817E+03 0.4898356791966808E-07 0.0000000000000000E+00 0.0000000000000000E+00 0.0000000000000000E+00 0.3571138228005871-157 0.1198275148342235-149 0.2642697504189280E+03 0.1145999822163353E-04 0.1305090681364910+152 0.1286995313824067+152 0.3571138228005871-157 0.1305090681362934+152 0.2864529710201206E+03 0.0000000000000000E+00 0.3571138228005871-157 0.3571138228005871-157 0.6029202581200647-152
  0.1088584524019610E+00 -.1110798045664334E-01 0.4310000000000000E-01 0.0000000000000000E+00 0.0000000000000000E+00 0.0000000000000000E+00 0.0000000000000000E+00 0.0000000000000000E+00 0.0000000000000000E+00 0.0000000000000000E+00 -.8880249581072635E+01 0.2000000000000000E+03 0.0000000000000000E+00 0.0000000000000000E+00 0.0000000000000000E+00 -.2605158351018805E+04 0.2573139992161754E+03 0.4898313705936886E-07 0.0000000000000000E+00 0.0000000000000000E+00 0.0000000000000000E+00 0.3571133018415050-157 0.1198273400293626-149 0.2642697504189273E+03 0.1145999822163353E-04 0.1305088808315777+152 0.1279040970532321+152 0.3571133018415050-157 0.1305088808313804+152 0.2864529710201206E+03 0.0000000000000000E+00 0.3571133018415050-157 0.3571133018415050-157 0.6135249992695674-152
  0.6898416537673328E-01 -.1036408523580630E-01 0.0000000000000000E+00 0.0000000000000000E+00 0.0000000000000000E+00 0.0000000000000000E+00 0.0000000000000000E+00 0.0000000000000000E+00 0.0000000000000000E+00 0.0000000000000000E+00 -.8880249581050744E+01 0.2000000000000000E+03 0.0000000000000000E+00 0.0000000000000000E+00 0.0000000000000000E+00 -.2943679201762572E+04 0.2907500296551221E+03 0.4898359817771174E-07 0.0000000000000000E+00 0.0000000000000000E+00 0.0000000000000000E+00 0.3571127808824230-157 0.1198271652245016-149 0.2642697504189492E+03 0.1145999822163353E-04 0.1305086935266630+152 0.1198926897394693+152 0.3571127808824230-157 0.1305086935264675+152 0.2864529710201206E+03 0.0000000000000000E+00 0.3571127808824230-157 0.3571127808824230-157 0.6801825470210505-152
  0.6898416537673328E-01 -.1036408523580630E-01 0.4310000000000000E-01 0.0000000000000000E+00 0.0000000000000000E+00 0.0000000000000000E+00 0.0000000000000000E+00 0.0000000000000000E+00 0.0000000000000000E+00 0.0000000000000000E+00 -.8880249581050744E+01 0.2000000000000000E+03 0.0000000000000000E+00 0.0000000000000000E+00 0.0000000000000000E+00 -.2943679201762572E+04 0.2907500296551221E+03 0.4898359817771174E-07 0.0000000000000000E+00 0.0000000000000000E+00 0.0000000000000000E+00 0.3571136491475597-157 0.1198274565659365-149 0.2642697504189492E+03 0.1145999822163353E-04 0.1305090057015181+152 0.1198930019143244+152 0.3571136491475597-157 0.1305090057013224+152 0.2864529710201206E+03 0.0000000000000000E+00 0.3571136491475597-157 0.3571136491475597-157 0.6801820918000585-152
  0.7032057971844349E-01 -.1040693543620933E-01 0.4310000000000000E-01 0.0000000000000000E+00 0.0000000000000000E+00 0.0000000000000000E+00 0.0000000000000000E+00 0.0000000000000000E+00 0.0000000000000000E+00 0.0000000000000000E+00 -.8880249581051668E+01 0.2000000000000000E+03 0.0000000000000000E+00 0.0000000000000000E+00 0.0000000000000000E+00 -.2927598321910579E+04 0.2891617056655216E+03 0.4898310837062686E-07 0.0000000000000000E+00 0.0000000000000000E+00 0.0000000000000000E+00 0.3571131281884777-157 0.1198272817610756-149 0.2642697504189483E+03 0.1145999822163353E-04 0.1305088183966043+152 0.1205073148467989+152 0.3571131281884777-157 0.1305088183964095+152 0.2864529710201206E+03 0.0000000000000000E+00 0.3571131281884777-157 0.3571131281884777-157 0.6469774077196212-152
  0.7032057971844349E-01 -.1040693543620933E-01 0.0000000000000000E+00 0.0000000000000000E+00 0.0000000000000000E+00 0.0000000000000000E+00 0.0000000000000000E+00 0.0000000000000000E+00 0.0000000000000000E+00 0.0000000000000000E+00 -.8880249581051668E+01 0.2000000000000000E+03 0.0000000000000000E+00 0.0000000000000000E+00 0.0000000000000000E+00 -.2927598321910579E+04 0.2891617056655216E+03 0.4898310837062686E-07 0.0000000000000000E+00 0.0000000000000000E+00 0.0000000000000000E+00 0.3571126072293957-157 0.1198271069562146-149 0.2642697504189483E+03 0.1145999822163353E-04 0.1305086310916913+152 0.1205073772817698+152 0.3571126072293957-157 0.1305086310914965+152 0.2864529710201206E+03 0.0000000000000000E+00 0.3571126072293957-157 0.3571126072293957-157 0.6469769524986292-152
  0.5141420940200046E-01 -.9600427689533189E-02 0.0000000000000000E+00 0.0000000000000000E+00 0.0000000000000000E+00 0.0000000000000000E+00 0.0000000000000000E+00 0.0000000000000000E+00 0.0000000000000000E+00 0.0000000000000000E+00 -.8880249581038612E+01 0.2000000000000000E+03 0.0000000000000000E+00 0.0000000000000000E+00 0.0000000000000000E+00 -.3172087133051391E+04 0.3133101009957510E+03 0.4898312619310381E-07 0.0000000000000000E+00 0.0000000000000000E+00 0.0000000000000000E+00 0.3571093078218761-157 0.1198259998587621-149 0.2642697504189614E+03 0.1145999822163353E-04 0.1305094427463254+152 0.1179189778551874+152 0.3571093078218761-157 0.1305094427461196+152 0.2864529710201206E+03 0.0000000000000000E+00 0.3571093078218761-157 0.3571093078218761-157 0.8870207406769894-152
  0.5023996841747818E-01 -.9534682243195586E-02 0.0000000000000000E+00 0.0000000000000000E+00 0.0000000000000000E+00 0.0000000000000000E+00 0.0000000000000000E+00 0.0000000000000000E+00 0.0000000000000000E+00 0.0000000000000000E+00 -.8880249581037754E+01 0.2000000000000000E+03 0.0000000000000000E+00 0.0000000000000000E+00 0.0000000000000000E+00 -.3189576198501878E+04 0.3150375128330614E+03 0.4898289500368420E-07 0.0000000000000000E+00 0.0000000000000000E+00 0.0000000000000000E+00 0.3571129545354503-157 0.1198272234927886-149 0.2642697504189622E+03 0.1145999822163353E-04 0.1305087559616439+152 0.1184993409013545+152 0.3571129545354503-157 0.1305087559614384+152 0.2864529710201206E+03 0.0000000000000000E+00 0.3571129545354503-157 0.3571129545354503-157 0.8481315951509922-152
  0.5023996841747818E-01 -.9534682243195586E-02 0.4310000000000000E-01 0.0000000000000000E+00 0.0000000000000000E+00 0.0000000000000000E+00 0.0000000000000000E+00 0.0000000000000000E+00 0.0000000000000000E+00 0.0000000000000000E+00 -.8880249581037754E+01 0.2000000000000000E+03 0.0000000000000000E+00 0.0000000000000000E+00 0.0000000000000000E+00 -.3189576198501878E+04 0.3150375128330614E+03 0.4898289500368420E-07 0.0000000000000000E+00 0.0000000000000000E+00 0.0000000000000000E+00 0.3571096551279308-157 0.1198261163953361-149 0.2642697504189622E+03 0.1145999822163353E-04 0.1305095676162674+152 0.1184996530762097+152 0.3571096551279308-157 0.1305095676160616+152 0.2864529710201206E+03 0.0000000000000000E+00 0.3571096551279308-157 0.3571096551279308-157 0.8481302294880135-152
  0.5141420940200046E-01 -.9600427689533189E-02 0.4310000000000000E-01 0.0000000000000000E+00 0.0000000000000000E+00 0.0000000000000000E+00 0.0000000000000000E+00 0.0000000000000000E+00 0.0000000000000000E+00 0.0000000000000000E+00 -.8880249581038612E+01 0.2000000000000000E+03 0.0000000000000000E+00 0.0000000000000000E+00 0.0000000000000000E+00 -.3172087133051391E+04 0.3133101009957510E+03 0.4898312619310381E-07 0.0000000000000000E+00 0.0000000000000000E+00 0.0000000000000000E+00 0.3571091341688488-157 0.1198259415904751-149 0.2642697504189614E+03 0.1145999822163353E-04 0.1305093803113544+152 0.1179190402901584+152 0.3571091341688488-157 0.1305093803111486+152 0.2864529710201206E+03 0.0000000000000000E+00 0.3571091341688488-157 0.3571091341688488-157 0.8870202854559976-152
  0.4564913583081628E-01 -.9257447767298720E-02 0.0000000000000000E+00 0.0000000000000000E+00 0.0000000000000000E+00 0.0000000000000000E+00 0.0000000000000000E+00 0.0000000000000000E+00 0.0000000000000000E+00 0.0000000000000000E+00 -.8880249581034226E+01 0.2000000000000000E+03 0.0000000000000000E+00 0.0000000000000000E+00 0.0000000000000000E+00 -.3263632791045113E+04 0.3223521537984256E+03 0.4898298707512566E-07 0.0000000000000000E+00 0.0000000000000000E+00 0.0000000000000000E+00 0.3571086132097667-157 0.1198257667856142-149 0.2642697504189658E+03 0.1145999822163353E-04 0.1305091930064424+152 0.1115740071070817+152 0.3571086132097667-157 0.1305091930062356+152 0.2864529710201206E+03 0.0000000000000000E+00 0.3571086132097667-157 0.3571086132097667-157 0.8746584528379629-152
  0.4564913583081628E-01 -.9257447767298720E-02 0.4310000000000000E-01 0.0000000000000000E+00 0.0000000000000000E+00 0.0000000000000000E+00 0.0000000000000000E+00 0.0000000000000000E+00 0.0000000000000000E+00 0.0000000000000000E+00 -.8880249581034226E+01 0.2000000000000000E+03 0.0000000000000000E+00 0.0000000000000000E+00 0.0000000000000000E+00 -.3263632791045113E+04 0.3223521537984256E+03 0.4898298707512566E-07 0.0000000000000000E+00 0.0000000000000000E+00 0.0000000000000000E+00 0.3571094814749035-157 0.1198260581270491-149 0.2642697504189658E+03 0.1145999822163353E-04 0.1305095051812974+152 0.1115740695420527+152 0.3571094814749035-157 0.1305095051810906+152 0.2864529710201206E+03 0.0000000000000000E+00 0.3571094814749035-157 0.3571094814749035-157 0.8746607289429221-152
  0.4678098083050043E-01 -.9328962314034539E-02 0.4310000000000000E-01 0.0000000000000000E+00 0.0000000000000000E+00 0.0000000000000000E+00 0.0000000000000000E+00 0.0000000000000000E+00 0.0000000000000000E+00 0.0000000000000000E+00 -.8880249581035111E+01 0.2000000000000000E+03 0.0000000000000000E+00 0.0000000000000000E+00 0.0000000000000000E+00 -.3244787908802150E+04 0.3204908266308090E+03 0.4898366372810413E-07 0.0000000000000000E+00 0.0000000000000000E+00 0.0000000000000000E+00 0.3571089605158214-157 0.1198258833221882-149 0.2642697504189649E+03 0.1145999822163353E-04 0.1305093178763842+152 0.1121208123383042+152 0.3571089605158214-157 0.1305093178761776+152 0.2864529710201206E+03 0.0000000000000000E+00 0.3571089605158214-157 0.3571089605158214-157 0.8700586166808336-152
  0.4678098083050043E-01 -.9328962314034539E-02 0.0000000000000000E+00 0.0000000000000000E+00 0.0000000000000000E+00 0.0000000000000000E+00 0.0000000000000000E+00 0.0000000000000000E+00 0.0000000000000000E+00 0.0000000000000000E+00 -.8880249581035111E+01 0.2000000000000000E+03 0.0000000000000000E+00 0.0000000000000000E+00 0.0000000000000000E+00 -.3244787908802150E+04 0.3204908266308090E+03 0.4898366372810413E-07 0.0000000000000000E+00 0.0000000000000000E+00 0.0000000000000000E+00 0.3571084395567394-157 0.1198257085173272-149 0.2642697504189649E+03 0.1145999822163353E-04 0.1305091305714711+152 0.1121208747732752+152 0.3571084395567394-157 0.1305091305712646+152 0.2864529710201206E+03 0.0000000000000000E+00 0.3571084395567394-157 0.3571084395567394-157 0.8700599823438090-152
  0.1477779867000698E-01 -.6079895240569074E-02 0.0000000000000000E+00 0.3979090113617433E-03 0.4681639225701803E+00 0.0000000000000000E+00 0.3979090113617433E-03 0.1000000000000000E+01 0.1193727034085245E-01 0.0000000000000000E+00 -.8587117836279358E+01 0.2002002623872647E+03 0.0000000000000000E+00 0.0000000000000000E+00 0.0000000000000000E+00 -.4270795033512160E+04 0.4218305384299695E+03 -.1236519216567632E+03 0.0000000000000000E+00 0.0000000000000000E+00 0.5953013970863122E-04 0.6419754484656611+151 0.1268229589798405-149 0.2645628821637206E+03 0.1139033963359603E-03 0.1306459920264039+152 0.8892574919593773+151 0.2462969204990643-150 0.1305099422258878+152 0.2864529710201206E+03 0.0000000000000000E+00 0.3571106970460949-157 0.7808660440947259+147 0.1681503814664264-151
  0.1396686709848054E-01 -.5984293792857927E-02 0.0000000000000000E+00 0.7382192295593715E-03 0.8683035899437053E+00 0.0000000000000000E+00 0.7382192295593715E-03 0.1000000000000000E+01 0.2214657688678105E-01 0.0000000000000000E+00 -.8342362503874091E+01 0.2006886044890181E+03 0.0000000000000000E+00 0.0000000000000000E+00 0.0000000000000000E+00 -.4318541794731013E+04 0.4265465320178595E+03 -.2294338673150628E+03 0.0000000000000000E+00 0.0000000000000000E+00 0.1102127417801764E-03 0.6419720145422549+151 0.1268817240319555-149 0.2648076374961259E+03 0.2108046749513324E-03 0.1305522451707613+152 0.8632930512028798+151 0.4406071125622328-150 0.1305092554412066+152 0.2864529710201206E+03 0.0000000000000000E+00 0.3571087868627941-157 0.2594906313432646+147 0.1709695813374226-151
  0.1396686709848054E-01 -.5984293792857927E-02 0.4310000000000000E-01 0.7382192295593715E-03 0.8683035899437053E+00 0.0000000000000000E+00 0.7382192295593715E-03 0.1000000000000000E+01 0.2214657688678105E-01 0.0000000000000000E+00 -.8342362503874091E+01 0.2006886044890181E+03 0.0000000000000000E+00 0.0000000000000000E+00 0.0000000000000000E+00 -.4318541794731013E+04 0.4265465320178595E+03 -.2294338673150628E+03 0.0000000000000000E+00 0.0000000000000000E+00 0.1102127417801764E-03 0.6419760728153713+151 0.1268830059342689-149 0.2648076374961259E+03 0.2108046749513324E-03 0.1305529319554423+152 0.8632999190496924+151 0.4406103173180154-150 0.1305100670958298+152 0.2864529710201206E+03 0.0000000000000000E+00 0.3571110443521496-157 0.2594912029524968+147 0.1709707649120012-151
  0.1477779867000698E-01 -.6079895240569074E-02 0.4310000000000000E-01 0.3979090113617433E-03 0.4681639225701803E+00 0.0000000000000000E+00 0.3979090113617433E-03 0.1000000000000000E+01 0.1193727034085245E-01 0.0000000000000000E+00 -.8587117836279358E+01 0.2002002623872647E+03 0.0000000000000000E+00 0.0000000000000000E+00 0.0000000000000000E+00 -.4270795033512160E+04 0.4218305384299695E+03 -.1236519216567632E+03 0.0000000000000000E+00 0.0000000000000000E+00 0.5953013970863122E-04 0.6419751362908060+151 0.1268228424432666-149 0.2645628821637206E+03 0.1139033963359603E-03 0.1306459295914329+152 0.8892568676096674+151 0.2462970661697816-150 0.1305098797909168+152 0.2864529710201206E+03 0.0000000000000000E+00 0.3571105233930675-157 0.7808656630219048+147 0.1681502904222280-151
  0.9278518947946625E-02 -.5355208270595358E-02 0.0000000000000000E+00 0.3229415969169862E-02 0.3893064985792697E+01 0.0000000000000000E+00 0.3229415969169862E-02 0.1000000000000000E+01 0.9688247907509612E-01 0.0000000000000000E+00 -.6675565488722759E+01 0.2136916675985494E+03 0.0000000000000000E+00 0.0000000000000000E+00 0.0000000000000000E+00 -.4610859897951563E+04 0.4554190725885895E+03 -.1004055184602101E+04 0.0000000000000000E+00 0.0000000000000000E+00 0.4518995141561966E-03 0.6419741997662406+151 0.1271373461644661-149 0.2664744345112772E+03 0.8660749468878322E-03 0.1301301424391059+152 0.7702930686463034+151 0.4757906918676829-151 0.1305096924860038+152 0.2864529710201206E+03 0.0000000000000000E+00 0.3571100024339855-157 0.7329675098299471+146 0.1759557184430513-151
  0.8526648875778683E-02 -.5232683341119147E-02 0.0000000000000000E+00 0.3718303896591626E-02 0.4516138499607854E+01 0.0000000000000000E+00 0.3718303896591626E-02 0.1000000000000000E+01 0.1115491168977513E+00 0.0000000000000000E+00 -.6363922350437066E+01 0.2183519604798893E+03 0.0000000000000000E+00 0.0000000000000000E+00 0.0000000000000000E+00 -.4651482022848882E+04 0.4594313589856526E+03 -.1156079639136044E+04 0.0000000000000000E+00 0.0000000000000000E+00 0.5089199366336983E-03 0.6419757606405162+151 0.1273973453977851-149 0.2667860776495629E+03 0.9759046595158043E-03 0.1300181627614385+152 0.7442040196089606+151 0.5649942065406245-151 0.1305100046608587+152 0.2864529710201206E+03 0.0000000000000000E+00 0.3571108706991222-157 0.5615736325025456+146 0.1826375961695662-151
  0.8526648875778683E-02 -.5232683341119147E-02 0.4310000000000000E-01 0.3718303896591626E-02 0.4516138499607854E+01 0.0000000000000000E+00 0.3718303896591626E-02 0.1000000000000000E+01 0.1115491168977513E+00 0.0000000000000000E+00 -.6363922350437066E+01 0.2183519604798893E+03 0.0000000000000000E+00 0.0000000000000000E+00 0.0000000000000000E+00 -.4651482022848882E+04 0.4594313589856526E+03 -.1156079639136044E+04 0.0000000000000000E+00 0.0000000000000000E+00 0.5089199366336983E-03 0.6419748241159509+151 0.1273969957880633-149 0.2667860776495629E+03 0.9759046595158043E-03 0.1300183500663515+152 0.7442021465598300+151 0.5649931140102444-151 0.1305098173559458+152 0.2864529710201206E+03 0.0000000000000000E+00 0.3571103497400402-157 0.5615750615256249+146 0.1826380513905580-151
  0.9278518947946625E-02 -.5355208270595358E-02 0.4310000000000000E-01 0.3229415969169862E-02 0.3893064985792697E+01 0.0000000000000000E+00 0.3229415969169862E-02 0.1000000000000000E+01 0.9688247907509612E-01 0.0000000000000000E+00 -.6675565488722759E+01 0.2136916675985494E+03 0.0000000000000000E+00 0.0000000000000000E+00 0.0000000000000000E+00 -.4610859897951563E+04 0.4554190725885895E+03 -.1004055184602101E+04 0.0000000000000000E+00 0.0000000000000000E+00 0.4518995141561966E-03 0.6419738875913855+151 0.1271372296278921-149 0.2664744345112772E+03 0.8660749468878322E-03 0.1301302048740769+152 0.7702936929960136+151 0.4757910560444765-151 0.1305096300510328+152 0.2864529710201206E+03 0.0000000000000000E+00 0.3571098287809582-157 0.7329670334889209+146 0.1759558094872497-151
  0.5600182418393123E-02 -.4666547310129301E-02 0.0000000000000000E+00 0.6178074180842365E-02 0.7785828554619815E+01 0.0000000000000000E+00 0.6178074180842365E-02 0.1000000000000000E+01 0.1853422254252722E+00 0.0000000000000000E+00 -.4817279493368701E+01 0.2529164975748820E+03 0.0000000000000000E+00 0.0000000000000000E+00 0.0000000000000000E+00 -.4786675640729336E+04 0.4727845628213115E+03 -.1920909536581169E+04 0.0000000000000000E+00 0.0000000000000000E+00 0.7257959126230370E-03 0.6419879354598652+151 0.1243542687905332-149 0.2683327205066313E+03 0.1261654082947393E-02 0.1296423838263975+152 0.6570817133786821+151 0.6594511161911892-149 0.1305104417056559+152 0.2864529710201206E+03 0.0000000000000000E+00 0.3571176431671886-157 0.2272967714350222+154 0.1555313873814241-151
  0.4887315735438600E-02 -.4496175997217165E-02 0.0000000000000000E+00 0.7022262078770450E-02 0.8950492334099815E+01 0.0000000000000000E+00 0.7022262078770450E-02 0.1000000000000000E+01 0.2106678623631145E+00 0.0000000000000000E+00 -.4266331048675640E+01 0.2689197456950306E+03 0.0000000000000000E+00 0.0000000000000000E+00 0.0000000000000000E+00 -.4791021201617314E+04 0.4732137780551899E+03 -.2183369820264357E+04 0.0000000000000000E+00 0.0000000000000000E+00 0.7737732504272479E-03 0.6419745119410958+151 0.1240872590316134-149 0.2688836689513244E+03 0.1308477905078366E-02 0.1294706992874331+152 0.6673450759146397+151 0.7589912228896277-149 0.1305097549209748+152 0.2864529710201206E+03 0.0000000000000000E+00 0.3571101760870128-157 0.2065623097151771+154 0.1658265238677342-151
  0.4887315735438600E-02 -.4496175997217165E-02 0.4310000000000000E-01 0.7022262078770450E-02 0.8950492334099815E+01 0.0000000000000000E+00 0.7022262078770450E-02 0.1000000000000000E+01 0.2106678623631145E+00 0.0000000000000000E+00 -.4266331048675640E+01 0.2689197456950306E+03 0.0000000000000000E+00 0.0000000000000000E+00 0.0000000000000000E+00 -.4791021201617314E+04 0.4732137780551899E+03 -.2183369820264357E+04 0.0000000000000000E+00 0.0000000000000000E+00 0.7737732504272479E-03 0.6419885598095754+151 0.1240887740070737-149 0.2688836689513244E+03 0.1308477905078366E-02 0.1294715109420571+152 0.6673831612469621+151 0.7590187255210752-149 0.1305105665755979+152 0.2864529710201206E+03 0.0000000000000000E+00 0.3571179904732433-157 0.2065704612249925+154 0.1658306208566616-151
  0.5600182418393123E-02 -.4666547310129301E-02 0.4310000000000000E-01 0.6178074180842365E-02 0.7785828554619815E+01 0.0000000000000000E+00 0.6178074180842365E-02 0.1000000000000000E+01 0.1853422254252722E+00 0.0000000000000000E+00 -.4817279493368701E+01 0.2529164975748820E+03 0.0000000000000000E+00 0.0000000000000000E+00 0.0000000000000000E+00 -.4786675640729336E+04 0.4727845628213115E+03 -.1920909536581169E+04 0.0000000000000000E+00 0.0000000000000000E+00 0.7257959126230370E-03 0.6419876232850101+151 0.1243541522539593-149 0.2683327205066313E+03 0.1261654082947393E-02 0.1296424462613685+152 0.6570810890289722+151 0.6594506500448936-149 0.1305103792706849+152 0.2864529710201206E+03 0.0000000000000000E+00 0.3571174695141613-157 0.2272969312685479+154 0.1555314784256225-151