 TITLE="NTI converted file"
 VARIABLES="X","Y","Z"," Mass Caught (kg/m^2s)"," Impact Angle (degree)"," Film Thickness (micron)"," Instant. Ice Growth (kg/m^2s)"," Freezing fraction"," Ice Growth  (kg/m^2)"," Instant. Mass Evaporation"," Wall Temperature (C)"," Ice Density (kg/m^3)"," Cfx; Velocity"," Cfy (m/s)"," Cfz (m/s)"," FLOW SOLVER Convective Flux"," Ch"," Current Convective Heat Flux"," Evaporative Heat Flux"," Anti-Icing Heat Flux"," Ice thickness  (m)"," NTAGS node tags"," ARATS Ice2Surf Area Ratio"," Anti-Icing Wall Temp. (K)"," Bead Height (m)"," NCNDS"," NCCFS"," CAIMS"," TRECSRecovery Temperature (K)"," Vapor Pressure (Pa)"," Clipped or shed film (kg/m^2)"," NCFLS CFL number"," NBEAS"," HBMXS"
ZONE ZONETYPE=FEQUADRILATERAL, DATAPACKING=POINT, T="WALL_2001", N=        1460 ,  E=         729                                                                                                                                                                                                                                                                                                                                                                                                                                                                                                                       
  -.8848089359617709E-02 0.1605753269412708E-02 0.0000000000000000E+00 0.1840644534534833E-01 0.5965537412201979E+02 0.3874116594461615E+02 0.3512956162657616E-02 0.2161641156626804E-01 0.5273121592248894E+01 0.9156853641631463E-04 0.0000000000000000E+00 0.9144134780586156E+03 -.4842157825673371E-03 -.1428069466674014E-02 0.0000000000000000E+00 -.2652529311648352E+03 0.2619928746179467E+02 -.2326562115020162E+03 0.2289213410407866E+03 0.0000000000000000E+00 0.9650483779841958E-02 0.6419779458645019+151 0.1301311461814025-149 0.2731500000000000E+03 0.2128175524980857E-02 0.1245974440110538+152 0.3987515552008520+152 0.5696712851996729-151 0.1305084437865833+152 0.2864529710201206E+03 0.0000000000000000E+00 0.2252443989006263-150 0.5723896035227214+154 0.5827972324919002-152
  -.8705645046801698E-02 0.1892860322670795E-02 0.0000000000000000E+00 0.1556574451910070E-01 0.4700785801589181E+02 0.3295134868907417E+02 0.3222390309232898E-02 0.2211047528532211E-01 0.5270019703034516E+01 0.9501981501587106E-04 0.0000000000000000E+00 0.9139548510929151E+03 -.6977865906597767E-03 -.1173703174942730E-02 0.0000000000000000E+00 -.2752513320869630E+03 0.2718683914978833E+02 -.2414259169654215E+03 0.2375495375396776E+03 0.0000000000000000E+00 0.9504421949893727E-02 0.3400392365043406+151 0.2343791044616054-149 0.2731500000000000E+03 0.2132240179134973E-02 0.7180599246271472+151 0.4154322771088317+152 0.6298723051279566-151 0.6589499268718522+151 0.2864529710201206E+03 0.0000000000000000E+00 0.2212857868220238-150 0.4368178433125203+154 0.8492041878985394-152
  -.8705645046801698E-02 0.1892860322670795E-02 0.4310000000000000E-01 0.1556574451910070E-01 0.4700785801589181E+02 0.3295134868907417E+02 0.3222390309232898E-02 0.2211047528532211E-01 0.5270019703034516E+01 0.9501981501587106E-04 0.0000000000000000E+00 0.9139548510929151E+03 -.6977865906597767E-03 -.1173703174942730E-02 0.0000000000000000E+00 -.2752513320869630E+03 0.2718683914978833E+02 -.2414259169654215E+03 0.2375495375396776E+03 0.0000000000000000E+00 0.9504421949893732E-02 0.6419785702142121+151 0.1322134922314949-149 0.2731500000000000E+03 0.2132240179134973E-02 0.1245973191411117+152 0.3701819682660104+152 0.5157295595379823-151 0.1305085686565253+152 0.2864529710201206E+03 0.0000000000000000E+00 0.2369549590443516-150 0.5687671120990711+154 0.5827963220499162-152
  -.8848089359617709E-02 0.1605753269412708E-02 0.4310000000000000E-01 0.1840644534534833E-01 0.5965537412201979E+02 0.3874116594461615E+02 0.3512956162657616E-02 0.2161641156626804E-01 0.5273121592248894E+01 0.9156853641631463E-04 0.0000000000000000E+00 0.9144134780586156E+03 -.4842157825673371E-03 -.1428069466674014E-02 0.0000000000000000E+00 -.2652529311648352E+03 0.2619928746179467E+02 -.2326562115020162E+03 0.2289213410407866E+03 0.0000000000000000E+00 0.9650483779841958E-02 0.6419776336896468+151 0.1301312627179764-149 0.2731500000000000E+03 0.2128175524980857E-02 0.1245973815760828+152 0.3987513054609680+152 0.5696709210228794-151 0.1305083813516123+152 0.2864529710201206E+03 0.0000000000000000E+00 0.2252442532299088-150 0.5723899231897731+154 0.5827967772709084-152
  -.8887144255441789E-02 0.3840076093997508E-03 0.0000000000000000E+00 0.2093682914814013E-01 0.7978451097570856E+02 0.1847646199311989E+04 0.2785520941461177E-02 0.1012400334479742E-01 0.1028393956923780E+02 0.1952166230867863E-04 0.0000000000000000E+00 0.9158151175998621E+03 0.0000000000000000E+00 0.0000000000000000E+00 0.0000000000000000E+00 -.5654976028937097E+02 0.5585474283773807E+01 -.4960040566751105E+02 0.4880415577169658E+02 0.0000000000000000E+00 0.9863951183212618E-02 0.6419766971650815+151 0.1201751021218961-149 0.2731500000000000E+03 0.1801829045163564E-02 0.1245976937509379+152 0.3895489660254058+152 0.6094826163891478-151 0.1305081940466993+152 0.2864529710201206E+03 0.6371128493244941E+01 0.3889235516334655-152 0.4450159555220296+154 0.5827990533758673-152
  -.8904324946100814E-02 0.6770716177948254E-03 0.0000000000000000E+00 0.2130609151012034E-01 0.8343412110447402E+02 0.2283153327223036E+03 0.2982785213656944E-02 0.1387752758823681E-01 0.8487592079652538E+01 0.3023120927889858E-04 0.0000000000000000E+00 0.9153761223460665E+03 0.2697385834584792E-04 -.5727615792019351E-03 0.0000000000000000E+00 -.8757286858152975E+02 0.8649656566455420E+01 -.7681110909904133E+02 0.7557802319724645E+02 0.0000000000000000E+00 0.9762763821199678E-02 0.6419782580393570+151 0.1220958810945149-149 0.2731500000000000E+03 0.1866475996277101E-02 0.1245972567061407+152 0.4074613865523840+152 0.6210556373331292-151 0.1305085062215542+152 0.2864529710201206E+03 0.0000000000000000E+00 0.2400178653204639-138 0.4013958733612048+154 0.5827958668289244-152
  -.8904324946100814E-02 0.6770716177948254E-03 0.4310000000000000E-01 0.2130609151012034E-01 0.8343412110447402E+02 0.2283153327223036E+03 0.2982785213656944E-02 0.1387752758823681E-01 0.8487592079652538E+01 0.3023120927889858E-04 0.0000000000000000E+00 0.9153761223460665E+03 0.2697385834584792E-04 -.5727615792019351E-03 0.0000000000000000E+00 -.8757286858152975E+02 0.8649656566455420E+01 -.7681110909904133E+02 0.7557802319724645E+02 0.0000000000000000E+00 0.9762763821199677E-02 0.6419773215147917+151 0.1220961724359497-149 0.2731500000000000E+03 0.1866475996277101E-02 0.1245975688809958+152 0.4074601378529636+152 0.6210574582170970-151 0.1305083189166413+152 0.2864529710201206E+03 0.0000000000000000E+00 0.2400173848205209-138 0.4013949143600498+154 0.5827981429338833-152
  -.8887144255441789E-02 0.3840076093997508E-03 0.4310000000000000E-01 0.2093682914814013E-01 0.7978451097570856E+02 0.1847646199311989E+04 0.2785520941461177E-02 0.1012400334479742E-01 0.1028393956923780E+02 0.1952166230867863E-04 0.0000000000000000E+00 0.9158151175998621E+03 0.0000000000000000E+00 0.0000000000000000E+00 0.0000000000000000E+00 -.5654976028937097E+02 0.5585474283773807E+01 -.4960040566751105E+02 0.4880415577169658E+02 0.0000000000000000E+00 0.9863951183212611E-02 0.6419763849902264+151 0.1201751603901830-149 0.2731500000000000E+03 0.1801829045163564E-02 0.1245976313159668+152 0.3895492157652898+152 0.6094822522123542-151 0.1305081316117283+152 0.2864529710201206E+03 0.6371128493244941E+01 0.3889237792439614-152 0.4450156358549781+154 0.5827985981548755-152
  -.9952307632460845E-02 -.8118815355410392E-03 0.0000000000000000E+00 0.3973040887070867E-02 0.1036865222247499E+02 0.6632730645108607E+02 0.5993705119236227E-03 0.3556184777516540E-01 0.3252097630529282E+01 0.1747537796459479E-04 0.0000000000000000E+00 0.8947249534305506E+03 -.7224298048037684E-04 -.2079572986547899E-04 0.0000000000000000E+00 -.4727817589787443E+02 0.5000000000000000E+01 -.4440124790441136E+02 0.4368844491148698E+02 0.0000000000000000E+00 0.1184159532934675E-01 0.6419804432633427+151 0.1197989091392238-149 0.2731500000000000E+03 0.1328852438008188E-02 0.1245979434908219+152 0.4544686809509887+150 0.2051322670167035-150 0.1305089432663514+152 0.2864529710201206E+03 0.4495272352678872E+01 0.1766444054350420-151 0.2375082387683248+154 0.6577302127318015-152
  -.9668583863109195E-02 -.7072770034610299E-03 0.0000000000000000E+00 0.6067778820491013E-02 0.1618475886031686E+02 0.6444402773567589E+02 0.8501224733808124E-03 0.6035493733547886E-01 0.3435955452800892E+01 0.1747536391004476E-04 0.0000000000000000E+00 0.8856391145765060E+03 -.4807642478332737E-04 -.1947209921187919E-04 0.0000000000000000E+00 -.4423244724636986E+02 0.5000000000000000E+01 -.4440124790441136E+02 0.4368840977511190E+02 0.0000000000000000E+00 0.1153603038196538E-01 0.6419770093399366+151 0.1202407187509701-149 0.2731500000000000E+03 0.1334044519035121E-02 0.1245975064460248+152 0.6820209164566405+150 0.2771784732373965-150 0.1305082564816703+152 0.2864529710201206E+03 0.3835883559262105E+01 0.1539040887026830-151 0.2239132666954328+154 0.7371886822800590-152
  -.9668583863109195E-02 -.7072770034610299E-03 0.4310000000000000E-01 0.6067778820491013E-02 0.1618475886031686E+02 0.6444402773567589E+02 0.8501224733808124E-03 0.6035493733547886E-01 0.3435955452800892E+01 0.1747536391004476E-04 0.0000000000000000E+00 0.8856391145765060E+03 -.4807642478332737E-04 -.1947209921187919E-04 0.0000000000000000E+00 -.4423244724636986E+02 0.5000000000000000E+01 -.4440124790441136E+02 0.4368840977511190E+02 0.0000000000000000E+00 0.1153603038196538E-01 0.6419810676130529+151 0.1202414762387008-149 0.2731500000000000E+03 0.1334044519035121E-02 0.1245978186208799+152 0.6820259892980345+150 0.2771792015909837-150 0.1305090681362934+152 0.2864529710201206E+03 0.3835883559262105E+01 0.1539052722772622-151 0.2239150248642165+154 0.7371946001529540-152
  -.9952307632460845E-02 -.8118815355410392E-03 0.4310000000000000E-01 0.3973040887070867E-02 0.1036865222247499E+02 0.6632730645108607E+02 0.5993705119236227E-03 0.3556184777516540E-01 0.3252097630529282E+01 0.1747537796459479E-04 0.0000000000000000E+00 0.8947249534305506E+03 -.7224298048037684E-04 -.2079572986547899E-04 0.0000000000000000E+00 -.4727817589787443E+02 0.5000000000000000E+01 -.4440124790441136E+02 0.4368844491148698E+02 0.0000000000000000E+00 0.1184159532934674E-01 0.6419801310884876+151 0.1197989674075108-149 0.2731500000000000E+03 0.1328852438008188E-02 0.1245978810558509+152 0.4544682907324198+150 0.2051321213459861-150 0.1305088808313804+152 0.2864529710201206E+03 0.4495272352678872E+01 0.1766444964792404-151 0.2375083986018506+154 0.6577297575108095-152
  -.8926119853554760E-02 0.9808461013887416E-03 0.0000000000000000E+00 0.2117463656203074E-01 0.8020829547160537E+02 0.9417282962545089E+02 0.3230547214361601E-02 0.1641499155015973E-01 0.6747899379626490E+01 0.4865967877518588E-04 0.0000000000000000E+00 0.9150788990721468E+03 0.4784824545682983E-05 -.1001430269391293E-02 0.0000000000000000E+00 -.1409557702831390E+03 0.1392233717768706E+02 -.1236338288870572E+03 0.1216491969379647E+03 0.0000000000000000E+00 0.9746611179678826E-02 0.6419791945639223+151 0.1304456763824895-149 0.2731500000000000E+03 0.1986855594388151E-02 0.1245981932307060+152 0.3561220535521214+152 0.5191972537875297-151 0.1305086935264675+152 0.2864529710201206E+03 0.0000000000000000E+00 0.2844478516504737-150 0.5480034551618699+154 0.5827954116079330-152
  -.8917687775642644E-02 0.1294452283185330E-02 0.0000000000000000E+00 0.2030997533346766E-01 0.7160379962067955E+02 0.5444030335935951E+02 0.3466830098517717E-02 0.1932168693616499E-01 0.5712289223008322E+01 0.7241643998989592E-04 0.0000000000000000E+00 0.9147346552476896E+03 -.1794693573914003E-03 -.1356773928527469E-02 0.0000000000000000E+00 -.2097736166949287E+03 0.2071954214249740E+02 -.1839947054269851E+03 0.1810410999747398E+03 0.0000000000000000E+00 0.9725237562040009E-02 0.6419807554381978+151 0.1246090565523045-149 0.2731500000000000E+03 0.2077129843029684E-02 0.1245977561859089+152 0.3720364312527286+152 0.5652132132359648-151 0.1305090057013224+152 0.2864529710201206E+03 0.0000000000000000E+00 0.4748162565483225-150 0.5056558066129690+154 0.5827922250609901-152
  -.8917687775642644E-02 0.1294452283185330E-02 0.4310000000000000E-01 0.2030997533346766E-01 0.7160379962067955E+02 0.5444030335935951E+02 0.3466830098517717E-02 0.1932168693616499E-01 0.5712289223008322E+01 0.7241643998989592E-04 0.0000000000000000E+00 0.9147346552476896E+03 -.1794693573914003E-03 -.1356773928527469E-02 0.0000000000000000E+00 -.2097736166949287E+03 0.2071954214249740E+02 -.1839947054269851E+03 0.1810410999747398E+03 0.0000000000000000E+00 0.9725237562040009E-02 0.6419798189136325+151 0.1246084738694349-149 0.2731500000000000E+03 0.2077129843029684E-02 0.1245980683607640+152 0.3720351825533088+152 0.5652113923519975-151 0.1305088183964095+152 0.2864529710201206E+03 0.0000000000000000E+00 0.4748153825240179-150 0.5056548476118145+154 0.5827945011659490-152
  -.8926119853554760E-02 0.9808461013887416E-03 0.4310000000000000E-01 0.2117463656203074E-01 0.8020829547160537E+02 0.9417282962545089E+02 0.3230547214361601E-02 0.1641499155015973E-01 0.6747899379626490E+01 0.4865967877518588E-04 0.0000000000000000E+00 0.9150788990721468E+03 0.4784824545682983E-05 -.1001430269391293E-02 0.0000000000000000E+00 -.1409557702831390E+03 0.1392233717768706E+02 -.1236338288870572E+03 0.1216491969379647E+03 0.0000000000000000E+00 0.9746611179678826E-02 0.6419788823890672+151 0.1304455598459156-149 0.2731500000000000E+03 0.1986855594388151E-02 0.1245981307957350+152 0.3561218038122374+152 0.5191968896107363-151 0.1305086310914965+152 0.2864529710201206E+03 0.0000000000000000E+00 0.2844479973211911-150 0.5480037748289215+154 0.5827949563869412-152
  -.9406933908258572E-02 -.5695416754330103E-03 0.0000000000000000E+00 0.8813482105879070E-02 0.2421198211585941E+02 0.6800960220838617E+02 0.1178835023027963E-02 0.1273322154038864E+00 0.3842175001148065E+01 0.1747536041293568E-04 0.0000000000000000E+00 0.8708180402636337E+03 -.1472052229714864E-04 -.8618890568258355E-05 0.0000000000000000E+00 -.4058743573606904E+02 0.5000000000000000E+01 -.4440124790441136E+02 0.4368840103233921E+02 0.0000000000000000E+00 0.1123498240010621E-01 0.6419729510668202+151 0.1217099043502079-149 0.2731500000000000E+03 0.1381403616349280E-02 0.1245964450515174+152 0.6466143524490101+152 0.1134710334811043-150 0.1305094427461196+152 0.2864529710201206E+03 0.3320464922510217E+01 0.3280885522576399-151 0.2732789061742877+154 0.5754069059205522-152
  -.9178187737505920E-02 -.3909891144882385E-03 0.0000000000000000E+00 0.1236748102402051E-01 0.3567599765497651E+02 0.9887609201091284E+02 0.1604352662597575E-02 0.1297234788136364E+00 0.4757076578175488E+01 0.1747535965710321E-04 0.0000000000000000E+00 0.8906210563944497E+03 0.1635600305199969E-04 0.1482398493890267E-04 0.0000000000000000E+00 -.3666110254777188E+02 0.5000000000000000E+01 -.4440124790441136E+02 0.4368839914275802E+02 0.0000000000000000E+00 0.1091995537522328E-01 0.6419795067387774+151 0.1186819915907080-149 0.2731500000000000E+03 0.1462545953774217E-02 0.1245980059257930+152 0.8672484901686341+152 0.1407065630853735-150 0.1305087559614384+152 0.2864529710201206E+03 0.1917446576778723E+01 0.3170956327761972-151 0.2455649782891908+154 0.6438540925279530-152
  -.9178187737505920E-02 -.3909891144882385E-03 0.4310000000000000E-01 0.1236748102402051E-01 0.3567599765497651E+02 0.9887609201091284E+02 0.1604352662597575E-02 0.1297234788136364E+00 0.4757076578175488E+01 0.1747535965710321E-04 0.0000000000000000E+00 0.8906210563944497E+03 0.1635600305199969E-04 0.1482398493890267E-04 0.0000000000000000E+00 -.3666110254777188E+02 0.5000000000000000E+01 -.4440124790441136E+02 0.4368839914275802E+02 0.0000000000000000E+00 0.1091995537522328E-01 0.6419735754165304+151 0.1186817002492732-149 0.2731500000000000E+03 0.1462545953774217E-02 0.1245963201815754+152 0.8672499886079351+152 0.1407080926279066-150 0.1305095676160616+152 0.2864529710201206E+03 0.1917446576778723E+01 0.3170903522126921-151 0.2455616217851500+154 0.6438600104008464-152
  -.9406933908258572E-02 -.5695416754330103E-03 0.4310000000000000E-01 0.8813482105879070E-02 0.2421198211585941E+02 0.6800960220838617E+02 0.1178835023027963E-02 0.1273322154038864E+00 0.3842175001148065E+01 0.1747536041293568E-04 0.0000000000000000E+00 0.8708180402636337E+03 -.1472052229714864E-04 -.8618890568258355E-05 0.0000000000000000E+00 -.4058743573606904E+02 0.5000000000000000E+01 -.4440124790441136E+02 0.4368840103233921E+02 0.0000000000000000E+00 0.1123498240010621E-01 0.6419726388919651+151 0.1217099626184949-149 0.2731500000000000E+03 0.1381403616349280E-02 0.1245963826165464+152 0.6466138529692419+152 0.1134709606457456-150 0.1305093803111486+152 0.2864529710201206E+03 0.3320464922510217E+01 0.3280883701692432-151 0.2732790660078134+154 0.5754073611415440-152
  -.9004186023108509E-02 -.1648299972275752E-03 0.0000000000000000E+00 0.1636899242033789E-01 0.5119377847168781E+02 0.1373476531536138E+03 0.2083456920809730E-02 0.7802452524786088E-01 0.6953680854646362E+01 0.1747537461842304E-04 0.0000000000000000E+00 0.9070065524044516E+03 0.3032189493354326E-04 0.4898795407265320E-04 0.0000000000000000E+00 -.3569124327531350E+02 0.5000000000000000E+01 -.4440124790441136E+02 0.4368843654605759E+02 0.0000000000000000E+00 0.1054977657601433E-01 0.6419717023673998+151 0.1204392392795089-149 0.2731500000000000E+03 0.1598886853671694E-02 0.1245966947914015+152 0.4376584132737912+152 0.7042893939221352-151 0.1305091930062356+152 0.2864529710201206E+03 0.1869278885395137E+01 0.1877816778996794-151 0.3888499199676705+154 0.5827542581551062-152
  -.8907741107188500E-02 0.9993403434007460E-04 0.0000000000000000E+00 0.1950918317696534E-01 0.6801272885117426E+02 0.2399895713917592E+03 0.2459400330973176E-02 0.5562268400146578E-01 0.9827354104771381E+01 0.1747537123008516E-04 0.0000000000000000E+00 0.9104630636900719E+03 0.2222918411497194E-04 0.8738862381073488E-04 0.0000000000000000E+00 -.4119570845722436E+02 0.5000000000000000E+01 -.4440124790441136E+02 0.4368842807521290E+02 0.0000000000000000E+00 0.1015078693125344E-01 0.6419732632416753+151 0.1205879375656468-149 0.2731500000000000E+03 0.1751661092118089E-02 0.1245962577466044+152 0.4896178469945615+152 0.7489311005919014-151 0.1305095051810906+152 0.2864529710201206E+03 0.7135892159803485E+00 0.1906517713973928-151 0.3204441848765533+154 0.5920985641864240-152
  -.8907741107188500E-02 0.9993403434007460E-04 0.4310000000000000E-01 0.1950918317696534E-01 0.6801272885117426E+02 0.2399895713917592E+03 0.2459400330973176E-02 0.5562268400146578E-01 0.9827354104771381E+01 0.1747537123008516E-04 0.0000000000000000E+00 0.9104630636900719E+03 0.2222918411497194E-04 0.8738862381073488E-04 0.0000000000000000E+00 -.4119570845722436E+02 0.5000000000000000E+01 -.4440124790441136E+02 0.4368842807521290E+02 0.0000000000000000E+00 0.1015078693125343E-01 0.6419723267171100+151 0.1205881123705077-149 0.2731500000000000E+03 0.1751661092118089E-02 0.1245965699214595+152 0.4896165982951416+152 0.7489329214758692-151 0.1305093178761776+152 0.2864529710201206E+03 0.7135892159803485E+00 0.1906520445299880-151 0.3204437053759762+154 0.5920999298494002-152
  -.9004186023108509E-02 -.1648299972275752E-03 0.4310000000000000E-01 0.1636899242033789E-01 0.5119377847168781E+02 0.1373476531536138E+03 0.2083456920809730E-02 0.7802452524786088E-01 0.6953680854646362E+01 0.1747537461842304E-04 0.0000000000000000E+00 0.9070065524044516E+03 0.3032189493354326E-04 0.4898795407265320E-04 0.0000000000000000E+00 -.3569124327531350E+02 0.5000000000000000E+01 -.4440124790441136E+02 0.4368843654605759E+02 0.0000000000000000E+00 0.1054977657601432E-01 0.6419713901925447+151 0.1204391810112219-149 0.2731500000000000E+03 0.1598886853671694E-02 0.1245966323564305+152 0.4376581635339071+152 0.7042890297453416-151 0.1305091305712646+152 0.2864529710201206E+03 0.1869278885395137E+01 0.1877815868554810-151 0.3888496003006190+154 0.5827547133760982-152
  -.8503555593164965E-02 0.2142981874562726E-02 0.0000000000000000E+00 0.1285745014536453E-01 0.3725278811844831E+02 0.3290041889156339E+02 0.2724951145799909E-02 0.2075070047784429E-01 0.5603909122131329E+01 0.8289909888459900E-04 0.0000000000000000E+00 0.9130682714669184E+03 -.6774717327035423E-03 -.8090273633255452E-03 0.0000000000000000E+00 -.2401407329313719E+03 0.2371893145808578E+02 -.2106300311396416E+03 0.2072477472114975E+03 0.0000000000000000E+00 0.9293223607197861E-02 0.6419754484656611+151 0.1343865791657207-149 0.2731500000000000E+03 0.2104342215001252E-02 0.1245969445312856+152 0.4727516578864736+152 0.6574956321134859-151 0.1305099422258878+152 0.2864529710201206E+03 0.0000000000000000E+00 0.2476345839160110-150 0.5836779379413358+154 0.5827863071880939-152
  -.8503555593164965E-02 0.2142981874562726E-02 0.4310000000000000E-01 0.1285745014536453E-01 0.3725278811844831E+02 0.3290041889156339E+02 0.2724951145799909E-02 0.2075070047784429E-01 0.5603909122131329E+01 0.8289909888459900E-04 0.0000000000000000E+00 0.9130682714669184E+03 -.6774717327035423E-03 -.8090273633255452E-03 0.0000000000000000E+00 -.2401407329313719E+03 0.2371893145808578E+02 -.2106300311396416E+03 0.2072477472114975E+03 0.0000000000000000E+00 0.9293223607197865E-02 0.6419720145422549+151 0.1343878610680337-149 0.2731500000000000E+03 0.2104342215001252E-02 0.1245965074864885+152 0.4727554039847341+152 0.6574974529974522-151 0.1305092554412066+152 0.2864529710201206E+03 0.0000000000000000E+00 0.2476341469038588-150 0.5836795362765930+154 0.5827904041770195-152
  -.8278589234085445E-02 0.2365775529666816E-02 0.0000000000000000E+00 0.1148398880900294E-01 0.3300791114250485E+02 0.3770377177089084E+02 0.2317937107928781E-02 0.1985713151717727E-01 0.6145312569946128E+01 0.6593072161132651E-04 0.0000000000000000E+00 0.9124100714719463E+03 -.5052307497307583E-03 -.5281806152613456E-03 0.0000000000000000E+00 -.1909873270725943E+03 0.1886400222444760E+02 -.1675170478474130E+03 0.1648268040283163E+03 0.0000000000000000E+00 0.9043030707823847E-02 0.6419760728153713+151 0.1268944380439386-149 0.2731500000000000E+03 0.2070386241709053E-02 0.1245968196613436+152 0.5550778886340600+152 0.7430524459627123-151 0.1305100670958298+152 0.2864529710201206E+03 0.0000000000000000E+00 0.4726163268761887-150 0.5187136103341017+154 0.5827853967461099-152
  -.8043323941660130E-02 0.2598973126148520E-02 0.0000000000000000E+00 0.1136052319687827E-01 0.3291753288917906E+02 0.4740441640350416E+02 0.2117488745203322E-02 0.2136397519565764E-01 0.6662741729530664E+01 0.5294179556676390E-04 0.0000000000000000E+00 0.9120395369637185E+03 -.3435658886322574E-03 -.3641160694045299E-03 0.0000000000000000E+00 -.1533611407304230E+03 0.1514762756370159E+02 -.1345147133239218E+03 0.1323544889169097E+03 0.0000000000000000E+00 0.8775385555691913E-02 0.6419751362908060+151 0.1295507686593828-149 0.2731500000000000E+03 0.1971094365123191E-02 0.1245968820963146+152 0.5191555564208402+152 0.7320550484973083-151 0.1305098797909168+152 0.2864529710201206E+03 0.0000000000000000E+00 0.2949313639730766-150 0.5458334115678979+154 0.5827858519671021-152
  -.8043323941660130E-02 0.2598973126148520E-02 0.4310000000000000E-01 0.1136052319687827E-01 0.3291753288917906E+02 0.4740441640350416E+02 0.2117488745203322E-02 0.2136397519565764E-01 0.6662741729530664E+01 0.5294179556676390E-04 0.0000000000000000E+00 0.9120395369637185E+03 -.3435658886322574E-03 -.3641160694045299E-03 0.0000000000000000E+00 -.1533611407304230E+03 0.1514762756370159E+02 -.1345147133239218E+03 0.1323544889169097E+03 0.0000000000000000E+00 0.8775385555691911E-02 0.6419741997662406+151 0.1295513513422524-149 0.2731500000000000E+03 0.1971094365123191E-02 0.1245971942711697+152 0.5191563056404924+152 0.7320561410276884-151 0.1305096924860038+152 0.2864529710201206E+03 0.0000000000000000E+00 0.2949309269609243-150 0.5458350099031553+154 0.5827881280720610-152
  -.8278589234085445E-02 0.2365775529666816E-02 0.4310000000000000E-01 0.1148398880900294E-01 0.3300791114250485E+02 0.3770377177089084E+02 0.2317937107928781E-02 0.1985713151717727E-01 0.6145312569946128E+01 0.6593072161132651E-04 0.0000000000000000E+00 0.9124100714719463E+03 -.5052307497307583E-03 -.5281806152613456E-03 0.0000000000000000E+00 -.1909873270725943E+03 0.1886400222444760E+02 -.1675170478474130E+03 0.1648268040283163E+03 0.0000000000000000E+00 0.9043030707823845E-02 0.6419757606405162+151 0.1268945545805125-149 0.2731500000000000E+03 0.2070386241709053E-02 0.1245967572263725+152 0.5550783881138279+152 0.7430520817859189-151 0.1305100046608587+152 0.2864529710201206E+03 0.0000000000000000E+00 0.4726160355347539-150 0.5187139300011534+154 0.5827849415251181-152
  -.7796452223107249E-02 0.2865344424370420E-02 0.0000000000000000E+00 0.1169734492399150E-01 0.3427317576907024E+02 0.6009020675180884E+02 0.2058429436945637E-02 0.2519675313542408E-01 0.6935447104265770E+01 0.4598506351338148E-04 0.0000000000000000E+00 0.9115255823740281E+03 -.2510521968968416E-03 -.2842911461076219E-03 0.0000000000000000E+00 -.1332090597034046E+03 0.1315718711329187E+02 -.1168391053483998E+03 0.1149626587834537E+03 0.0000000000000000E+00 0.8506919903335724E-02 0.6419748241159509+151 0.1200795399173552-149 0.2731500000000000E+03 0.1860258021956557E-02 0.1245970694012277+152 0.5478328892412420+152 0.7504743401999828-151 0.1305098173559458+152 0.2864529710201206E+03 0.1115121190356860E+00 0.3792046906204603-152 0.4004324214595739+154 0.5827872176300770-152
  -.7538701503337471E-02 0.3169719407448641E-02 0.0000000000000000E+00 0.1195594789585266E-01 0.3565726540376324E+02 0.6652770987780693E+02 0.2091882315303646E-02 0.3189329891638366E-01 0.6963383710052431E+01 0.4614899193508527E-04 0.0000000000000000E+00 0.9105089673144723E+03 -.2450383288778991E-03 -.2975809368354448E-03 0.0000000000000000E+00 -.1336838369264325E+03 0.1320408131684241E+02 -.1172555375798252E+03 0.1153724798377132E+03 0.0000000000000000E+00 0.8258853122762009E-02 0.6419738875913855+151 0.1200546946519490-149 0.2731500000000000E+03 0.1795608611946941E-02 0.1245971318361987+152 0.5291781137664087+152 0.8113006360368016-151 0.1305096300510328+152 0.2864529710201206E+03 0.1222356816749252E+01 0.2683463834819844-152 0.4591811246965619+154 0.5827876728510692-152
  -.7538701503337471E-02 0.3169719407448641E-02 0.4310000000000000E-01 0.1195594789585266E-01 0.3565726540376324E+02 0.6652770987780693E+02 0.2091882315303646E-02 0.3189329891638366E-01 0.6963383710052431E+01 0.4614899193508527E-04 0.0000000000000000E+00 0.9105089673144723E+03 -.2450383288778991E-03 -.2975809368354448E-03 0.0000000000000000E+00 -.1336838369264325E+03 0.1320408131684241E+02 -.1172555375798252E+03 0.1153724798377132E+03 0.0000000000000000E+00 0.8258853122762007E-02 0.6419879354598652+151 0.1200553356031062-149 0.2731500000000000E+03 0.1795608611946941E-02 0.1245954460919811+152 0.5292085820322592+152 0.8113101046334271-151 0.1305104417056559+152 0.2864529710201206E+03 0.1222356816749252E+01 0.2683488871974391-152 0.4591897557069536+154 0.5827826654201562-152
  -.7796452223107249E-02 0.2865344424370420E-02 0.4310000000000000E-01 0.1169734492399150E-01 0.3427317576907024E+02 0.6009020675180884E+02 0.2058429436945637E-02 0.2519675313542408E-01 0.6935447104265770E+01 0.4598506351338148E-04 0.0000000000000000E+00 0.9115255823740281E+03 -.2510521968968416E-03 -.2842911461076219E-03 0.0000000000000000E+00 -.1332090597034046E+03 0.1315718711329187E+02 -.1168391053483998E+03 0.1149626587834537E+03 0.0000000000000000E+00 0.8506919903335724E-02 0.6419745119410958+151 0.1200795981856421-149 0.2731500000000000E+03 0.1860258021956557E-02 0.1245970069662566+152 0.5478333887210099+152 0.7504739760231892-151 0.1305097549209748+152 0.2864529710201206E+03 0.1115121190356860E+00 0.3792049182309563-152 0.4004327411266255+154 0.5827867624090852-152
  -.7267158153037387E-02 0.3517738139717632E-02 0.0000000000000000E+00 0.1199124116586874E-01 0.3659516703625250E+02 0.5508464726504680E+02 0.2221344418463195E-02 0.4369504292785100E-01 0.6876424308147995E+01 0.5489125441192637E-04 0.0000000000000000E+00 0.9084777857415609E+03 -.3085338536458232E-03 -.3972283678162205E-03 0.0000000000000000E+00 -.1590083644564747E+03 0.1570540928965716E+02 -.1394679542620625E+03 0.1372281360298159E+03 0.0000000000000000E+00 0.8035954579532724E-02 0.6419885598095754+151 0.1198424403763766-149 0.2731500000000000E+03 0.1773671170474874E-02 0.1245953212220391+152 0.5040172696943445+152 0.7081034536271719-151 0.1305105665755979+152 0.2864529710201206E+03 0.2538965556990159E+01 0.3961281418911465-152 0.4128251529067158+154 0.5950951056280927-152
  -.6978704169228664E-02 0.3911373248409680E-02 0.0000000000000000E+00 0.1186899400690767E-01 0.3686921162418899E+02 0.3743092810117294E+02 0.2446742588779526E-02 0.6431162780860770E-01 0.6736455611659284E+01 0.7165831383086860E-04 0.0000000000000000E+00 0.9046083168280574E+03 -.3746957699664045E-03 -.5015067866586502E-03 0.0000000000000000E+00 -.2075788307789134E+03 0.2050276102389386E+02 -.1820696349893628E+03 0.1791457845771715E+03 0.0000000000000000E+00 0.7848394025864205E-02 0.6419876232850101+151 0.1199910947632362-149 0.2731500000000000E+03 0.1784688110074714E-02 0.1245953836570101+152 0.5233220545090001+152 0.7262921118717408-151 0.1305103792706849+152 0.2864529710201206E+03 0.1870059233071326E+01 0.4064192391193000-152 0.3836879003014046+154 0.5879761272884130-152